/*--------------------------------*- C++ -*----------------------------------*\
| =========                 |                                                 |
| \\      /  F ield         | OpenFOAM: The Open Source CFD Toolbox           |
|  \\    /   O peration     | Version:  2112                                  |
|   \\  /    A nd           | Website:  www.openfoam.com                      |
|    \\/     M anipulation  |                                                 |
\*---------------------------------------------------------------------------*/
FoamFile
{
    version     2.0;
    format      binary;
    arch        "LSB;label=32;scalar=64";
    class       volScalarField;
    location    "1e-05";
    object      rho;
}
// * * * * * * * * * * * * * * * * * * * * * * * * * * * * * * * * * * * * * //

dimensions      [1 -3 0 0 0 0 0];

internalField   uniform 4680;

boundaryField
{
    left
    {
        type            calculated;
        value           uniform 4680;
    }
    right
    {
        type            calculated;
        value           uniform 4680;
    }
    bottom
    {
        type            calculated;
        value           uniform 4680;
    }
    top
    {
        type            calculated;
        value           uniform 4680;
    }
    frontAndBack
    {
        type            calculated;
        value           uniform 4680;
    }
}


// ************************************************************************* //
